  140
Geometry Step: 99
   Ti      6.55513062     -5.41815209     -0.27625857      3.14899645
   Ti      1.46331679     -4.46060181      1.75060657      3.26861763
   Ti      4.57575640     -5.23519653      1.82703594      3.13068834
   Ti      4.22653918     -4.78607336     -1.84198016      3.22504610
    O      5.04116717     -3.87685880      2.90858536      6.41188761
    O      4.44343358     -3.12947784     -2.23359823      6.36092455
    O      6.12415126     -6.21499681      1.30687512      6.45904908
    O      5.83298881     -5.81022232     -1.89177088      6.43853763
    O      2.85519052     -5.68772993      2.11245335      6.41501937
    O      7.72034306     -4.04521231     -0.34284940      6.43016421
    O      4.69015751     -4.67569358      0.01331771      6.34465971
   Ti     -4.40305951     -6.19455675      1.35777849      3.42093108
    O     -3.91801837     -7.58785552      0.72067171      6.37511365
    O     -3.27532532     -5.84365576     -2.13242999      6.40506503
    O      2.62127527     -5.44069879     -2.33390605      6.40569047
   Ti      7.43662188     -2.17929882     -0.12564136      3.02925982
   Ti      1.53720081     -0.95721984      1.99487876      3.10886544
   Ti      5.72570986     -2.24918380      2.24356979      3.23219196
   Ti      4.76611829     -1.51522874     -1.25135545      3.15940509
    O      5.19213647     -0.63512821      2.85654618      6.40627275
    O      3.22900223     -0.82912914     -1.62159760      6.39059941
    O      7.41815148     -2.27134883      1.87233470      6.42775924
    O      6.61191695     -1.57823970     -1.72123463      6.49673083
    O      1.99934971     -2.78538692      2.10397410      6.39667083
    O      8.37022518     -0.52625974     -0.10444534      6.43594946
    O      5.36273995     -2.28537761      0.39356884      6.38974177
   Ti      1.15827917     -4.36009280     -1.82146359      3.36311784
   Ti     -1.85505512     -4.48998375      2.00962266      3.20732440
   Ti     -2.15218779     -4.53120770     -1.58407870      3.16706482
    O     -2.40748903     -2.79842797      2.68545819      6.37504401
    O     -2.93696801     -2.84975928     -1.95254862      6.40143144
    O      1.18738005     -4.53461705     -0.02464386      6.35379250
    O     -0.53295914     -4.78824055     -2.33402911      6.37180690
    O     -3.14066307     -5.57279245      2.63197081      6.39847246
    O      1.45853783     -2.72480141     -2.23468690      6.33785907
    O     -0.14793286     -4.82583624      2.50164000      6.37561908
    O     -1.97143886     -4.53710075      0.21434475      6.35435717
   Ti      7.14602980      0.80688472     -0.15876528      3.21750562
   Ti      2.31478029      2.19916298      1.52704570      3.02978920
   Ti      4.88945694      0.67578169      1.63323794      3.02843025
    O      4.35737812      2.58416492      1.80856134      6.42613121
    O      2.80411131      3.11903504     -3.11293406      6.41655833
    O      6.78844363      1.29304179      1.53082162      6.46356555
    O      3.01232687      0.33531652      1.51468599      6.41184648
    O      7.14584893      2.38524926     -1.20815101      6.41791153
    O      5.32463494      0.24329111     -0.18267866      6.40222321
   Ti      1.31698748     -0.91024743     -1.63520978      3.24754813
   Ti     -4.20062989      1.12898570      2.24353316      3.21472075
   Ti     -2.05073921     -0.94119101      2.00229471      3.24115882
   Ti     -2.20127399     -1.02497913     -1.53258679      3.29657126
    O     -2.19192234      1.03297026      1.67385805      6.34996388
    O     -2.32796908      0.88838326     -1.48842967      6.38992021
    O      1.10971312     -0.87587764      0.14745333      6.41493613
    O     -0.60746220     -1.14892003     -2.13557216      6.37836896
    O     -3.62682558     -0.42723148      2.96930862      6.47098148
    O      1.32045054      0.68297171     -2.51271175      6.38147550
    O     -0.31025726     -0.94141651      2.44095686      6.40800403
    O     -2.21786032     -1.32625382      0.24997807      6.36934677
   Ti     -5.01574167     -5.37201711     -1.90580481      3.12861892
   Ti     -6.90414179     -5.24246855      0.24907063      3.18289172
    O     -7.65485506     -3.59999952      0.38194400      6.39540597
    O     -4.95234866     -4.89678600     -0.05965073      6.34521925
    O     -5.21106074     -3.95368966     -2.87135248      6.40778056
    O     -6.28698912     -6.17179607      1.66815713      6.40421726
    O     -6.74563364     -5.99653423     -1.39342949      6.44270835
   Ti     -4.87839841     -2.28603328     -2.00113431      3.06875811
   Ti     -7.01067320     -2.01113282     -0.24096361      3.30299921
    O     -7.54439417     -0.39135579      0.37321443      6.37396388
    O     -5.19970488     -2.20957498     -0.19672799      6.40165770
    O     -4.09105977     -0.59960342     -2.42620609      6.41909466
    O     -6.76460702     -1.93204171     -2.02885721      6.42864826
   Ti      6.19921599      3.91072558     -1.08346338      3.14906112
   Ti      1.91243734      5.93745260      1.65742601      3.19063796
   Ti      4.37837599      4.34435742      1.14118372      2.99519113
   Ti      3.71355110      4.51640040     -2.44520893      3.14537082
    O      3.78213678      5.96547443      1.92883056      6.47878849
    O      2.88710144      6.11504007     -2.57655038      6.40526348
    O      6.16587425      4.65901137      0.57074764      6.45111738
    O      5.60229043      4.60245554     -2.65376683      6.44745771
    O      2.14387774      4.18102620      1.33605523      6.39825947
    O      4.21855366      3.88841275     -0.71286624      6.37304034
   Ti      1.40451309      2.42387577     -2.03012451      3.16431085
   Ti     -4.08537455      4.53268195      2.26014724      3.17805126
   Ti     -0.98517019      2.34484292      1.44462961      3.40321633
   Ti     -1.71146687      2.65112155     -1.83773190      3.23394618
    O     -1.24344075      3.97869601      2.40836644      6.36358243
    O     -2.03942244      4.56181567     -1.42080586      6.36359755
    O      2.00540832      2.16134261     -0.34475347      6.44018870
    O     -0.38432651      2.64208278     -2.91853067      6.38895562
    O     -3.88617535      2.88240912      2.93938995      6.43801405
    O      0.98896619      4.40127989     -1.46138589      6.36924759
    O      0.52195900      1.75283574      1.98891803      6.34971011
    O     -0.84627482      2.71240913     -0.22697457      6.33046712
   Ti      1.28476702      6.07156269     -1.59213044      3.38202421
   Ti     -1.28691324      5.87582400      2.13833171      3.14232709
   Ti     -1.74564408      6.34612798     -1.30975915      3.21018081
    O      1.62440741      6.73115138      0.06593994      6.37162995
    O     -0.30267531      6.87003524     -2.25054965      6.39825702
    O     -2.93474009      5.90334583      2.88731766      6.45601278
    O      0.37351512      6.27798207      2.72337888      6.43765557
    O     -1.48720583      6.53088827      0.47725021      6.37749100
   Ti     -4.31378867      1.11643223     -1.61594431      3.10330798
   Ti     -6.53212631      1.11111264      0.37390242      3.16375527
    O     -7.20665289      2.89591245      0.45889071      6.36782583
    O     -4.52002566      1.05272127      0.28039665      6.39003762
    O     -3.75518258      2.90623934     -2.29734145      6.45186877
    O     -6.01046190      1.07587803      2.20806067      6.43898876
    O     -6.11853859      1.25539805     -1.49718103      6.46974531
   Ti     -4.05872069      4.59966381     -1.46859366      3.05100540
   Ti     -6.28351836      4.34588073      0.39285997      3.11635183
    O     -4.25072612      4.15857271      0.39264521      6.39325707
    O     -3.57141874      6.40929449     -1.79281591      6.47972116
    O     -5.82423173      5.02059745      2.11270642      6.43496454
    O     -5.93861416      4.87330237     -1.30331284      6.44754671
    C      1.73693023      0.42517201      4.78118980      3.77079747
    C      1.34591823     -0.07691255      6.02473534      4.21716425
    C      1.15754599      0.76804769      7.15249320      3.99730796
    C      1.34049053      2.15722592      6.98117723      4.11596006
    C      1.72909351      2.67375508      5.74661668      4.21601244
    C      1.95569749      1.83879086      4.62749715      3.74178804
    H      1.20843920     -1.16120409      6.13908992      0.92080453
    H      1.19128216      2.83997070      7.82517353      0.90739873
    H      1.89639293      3.75461514      5.63997751      0.92498693
    O      2.42212765      2.39442436      3.50749764      6.44265063
    O      1.94859843     -0.44702982      3.77176623      6.38625804
    C      0.82144783      0.14187767      8.40813196      4.09106183
    H      0.70239046     -0.95287748      8.36113595      0.92944178
    C      0.66813637      0.70339034      9.65722700      3.99223714
    C      0.79714731      2.11475081      9.92183311      3.83255495
    N      0.88164034      3.22371455     10.22072930      5.30856679
    C      0.38140180     -0.09804855     10.83346282      3.96729871
    C      0.25168693      0.36383328     12.12776952      4.14424213
    H      0.34699423      1.42256119     12.39231541      0.90072113
    S      0.17676985     -1.87618706     10.76498353      5.97142050
    C     -0.00920970     -0.67136110     13.07714856      4.10742319
    C     -0.07970397     -1.91645072     12.51896142      4.10226463
    H     -0.26995824     -2.85806352     13.04032108      0.90907849
    H     -0.13899537     -0.48489291     14.14925703      0.91652534
    H     -1.37275115      3.78342108      3.34673419      0.67026166
    H     -3.14686182     -2.80863785      3.30831872      0.67569395
